 Gaussian 09, Revision B.01,
 Gaussian 09:  EM64L-G09RevB.01 12-Aug-2010

 ------------------------------------------------------
 # rb3lyp/6-311++g(2d,p) geom=connectivity polar=optrot
 ------------------------------------------------------

 -------------------
 Title Card Required
 -------------------
 Symbolic Z-matrix:
 Charge =  0 Multiplicity = 1

                         Standard orientation:
 ---------------------------------------------------------------------
 Center     Atomic      Atomic             Coordinates (Angstroms)
 Number     Number       Type             X           Y           Z
 ---------------------------------------------------------------------
      1          6           0        2.064650    1.181268   -2.745685
      2          6           0        2.531186    1.976612   -1.780267
      3          6           0        2.022102    1.821124   -0.368011
      4          6           0        1.579010    0.381779    0.047072
      5          6           0        1.266025   -0.612141   -1.113305
      6          6           0        1.055163    0.097325   -2.485729
      7          6           0        0.378438    0.628728    1.032421
      8          6           0       -0.977235    0.343147    0.415852
      9          6           0       -1.218890   -0.693503   -0.414084
     10          6           0       -0.037731   -1.436090   -0.908370
     11          6           0       -2.575874   -1.053244   -0.958611
     12          8           0       -2.719996   -1.223655   -2.151845
     13          6           0       -3.711668   -1.270056    0.040352
     14          6           0       -5.097249   -1.086644   -0.592879
     15          6           0       -3.539067   -2.687488    0.630579
     16          8           0       -0.101273   -2.592155   -1.277860
     17          6           0        0.263050    2.146971    1.278818
     18          6           0       -1.237025    2.350367    1.581930
     19          8           0       -1.881560    1.249788    0.808974
     20          6           0        0.818430    2.734748   -0.029053
     21          8           0        0.484159   -0.146235    2.210222
     22          6           0        2.511864   -1.516292   -1.166510
     23          6           0        3.172692   -1.436848    0.209623
     24          8           0        2.639690   -0.215008    0.813899
     25          6           0        3.009961   -2.583596    1.192964
     26          6           0        3.849899   -2.443619    2.439815
     27          6           0        2.218203   -3.636668    0.987951
     28          6           0       -1.567902    2.132780    3.057792
     29          6           0       -1.849753    3.645745    1.066609
     30          1           0        0.878280    2.444909    2.130645
     31          1           0        2.828781    2.072309    0.330252
     32          6           0        3.531359    3.072971   -2.028237
     33          1           0        2.407063    1.313621   -3.769694
     34          1           0        1.099494   -0.667116   -3.266170
     35          1           0        0.038811    0.505358   -2.543781
     36          1           0       -3.585375   -0.550552    0.855983
     37          1           0       -5.182804   -1.753232   -1.456261
     38          1           0       -5.847641   -1.421304    0.133235
     39          1           0       -3.668481   -3.449111   -0.142812
     40          1           0       -4.286910   -2.861258    1.409134
     41          1           0       -2.551307   -2.827122    1.076202
     42          1           0        0.077589    2.677108   -0.832292
     43          1           0        1.108575    3.783622    0.062635
     44          1           0        1.400062   -0.475107    2.228535
     45          1           0        2.238544   -2.525995   -1.464893
     46          1           0        3.206745   -1.127347   -1.912774
     47          1           0        4.247016   -1.250677    0.099275
     48          1           0        3.657592   -1.496852    2.955032
     49          1           0        4.918215   -2.446103    2.191954
     50          1           0        3.665192   -3.257069    3.143546
     51          1           0        2.145691   -4.426830    1.729717
     52          1           0        1.606820   -3.755536    0.102306
     53          1           0       -1.143372    1.198413    3.424395
     54          1           0       -1.163822    2.953423    3.657500
     55          1           0       -2.650871    2.110801    3.201293
     56          1           0       -1.713214    3.764770   -0.008532
     57          1           0       -1.392062    4.502369    1.568937
     58          1           0       -2.921617    3.667467    1.275329
     59          1           0        3.812212    3.132998   -3.081965
     60          1           0        3.137319    4.052161   -1.731641
     61          1           0        4.444381    2.915347   -1.442089
     62          6           0       -5.409042    0.350600   -1.018089
     63          1           0       -6.421459    0.426259   -1.425438
     64          1           0       -4.719014    0.698285   -1.790475
     65          1           0       -5.342180    1.042273   -0.171885
 ---------------------------------------------------------------------

 SCF Done:  E(RB3LYP) =  -1387.73099824     A.U. after   15 cycles

  1  C    Isotropic =    54.7926   Anisotropy =   131.0157

  2  C    Isotropic =    35.2083   Anisotropy =   177.9625

  3  C    Isotropic =   124.0380   Anisotropy =    33.0960

  4  C    Isotropic =    85.5311   Anisotropy =    54.9934

  5  C    Isotropic =   115.1907   Anisotropy =    31.6963

  6  C    Isotropic =   145.9583   Anisotropy =    27.9752

  7  C    Isotropic =    91.4894   Anisotropy =    37.8918

  8  C    Isotropic =     1.2125   Anisotropy =   124.9834

  9  C    Isotropic =    62.1209   Anisotropy =    88.3770

 10  C    Isotropic =   -21.5578   Anisotropy =   158.9823

 11  C    Isotropic =   -29.7969   Anisotropy =   175.1740

 12  O    Isotropic =  -316.2664   Anisotropy =  1015.1459

 13  C    Isotropic =   129.2276   Anisotropy =    34.6151

 14  C    Isotropic =   153.3471   Anisotropy =    28.0557

 15  C    Isotropic =   162.6869   Anisotropy =    30.6543

 16  O    Isotropic =  -263.9657   Anisotropy =   929.8994

 17  C    Isotropic =   122.6349   Anisotropy =    18.1192

 18  C    Isotropic =    83.9607   Anisotropy =    84.7087

 19  O    Isotropic =   104.8119   Anisotropy =    77.3973

 20  C    Isotropic =   149.9720   Anisotropy =    32.2332

 21  O    Isotropic =   239.7705   Anisotropy =    40.5419

 22  C    Isotropic =   146.0759   Anisotropy =    46.8161

 23  C    Isotropic =    93.5913   Anisotropy =    61.8422

 24  O    Isotropic =   186.4793   Anisotropy =    89.7189

 25  C    Isotropic =    30.8808   Anisotropy =   179.1511

 26  C    Isotropic =   158.7115   Anisotropy =    39.4515

 27  C    Isotropic =    63.0346   Anisotropy =   135.3624

 28  C    Isotropic =   154.9698   Anisotropy =    40.6187

 29  C    Isotropic =   158.5826   Anisotropy =    35.6320

 30  H    Isotropic =    29.7725   Anisotropy =     4.2395

 31  H    Isotropic =    29.3677   Anisotropy =     5.4817

 32  C    Isotropic =   157.6317   Anisotropy =    43.6848

 33  H    Isotropic =    26.0249   Anisotropy =     2.8374

 34  H    Isotropic =    29.8094   Anisotropy =     8.5515

 35  H    Isotropic =    29.6751   Anisotropy =     6.2578

 36  H    Isotropic =    28.7778   Anisotropy =     8.9670

 37  H    Isotropic =    29.8615   Anisotropy =     6.3051

 38  H    Isotropic =    30.7808   Anisotropy =     7.4916

 39  H    Isotropic =    31.1253   Anisotropy =     8.0289

 40  H    Isotropic =    30.9774   Anisotropy =     8.7601

 41  H    Isotropic =    30.4800   Anisotropy =     6.8699

 42  H    Isotropic =    31.0504   Anisotropy =     4.5884

 43  H    Isotropic =    30.0278   Anisotropy =     8.7723

 44  H    Isotropic =    27.9150   Anisotropy =    18.0614

 45  H    Isotropic =    28.5714   Anisotropy =     7.0850

 46  H    Isotropic =    29.8582   Anisotropy =     7.1028

 47  H    Isotropic =    27.2587   Anisotropy =     7.1183

 48  H    Isotropic =    29.8448   Anisotropy =     4.6187

 49  H    Isotropic =    30.2416   Anisotropy =     9.1119

 50  H    Isotropic =    30.1306   Anisotropy =     7.9835

 51  H    Isotropic =    26.8014   Anisotropy =     4.2874

 52  H    Isotropic =    26.3703   Anisotropy =     6.6249

 53  H    Isotropic =    29.3931   Anisotropy =     4.7604

 54  H    Isotropic =    30.8644   Anisotropy =     9.7279

 55  H    Isotropic =    30.5385   Anisotropy =     8.4163

 56  H    Isotropic =    30.6539   Anisotropy =     5.8919

 57  H    Isotropic =    30.8678   Anisotropy =     9.6763

 58  H    Isotropic =    30.4429   Anisotropy =     8.4202

 59  H    Isotropic =    30.0371   Anisotropy =     8.5447

 60  H    Isotropic =    30.0283   Anisotropy =     7.8981

 61  H    Isotropic =    30.1001   Anisotropy =     8.0971

 62  C    Isotropic =   169.1093   Anisotropy =    23.4350

 63  H    Isotropic =    31.0039   Anisotropy =    11.3061

 64  H    Isotropic =    30.9259   Anisotropy =     4.9627

 65  H    Isotropic =    31.3112   Anisotropy =     7.3106

 The electronic state is 1-A.
 Alpha  occ. eigenvalues --  -19.17841 -19.14619 -19.13280 -19.10970 -19.10652
 Alpha  occ. eigenvalues --  -10.26184 -10.26024 -10.25980 -10.25589 -10.25448
 Alpha  occ. eigenvalues --  -10.25227 -10.23667 -10.20552 -10.19604 -10.19359
 Alpha  occ. eigenvalues --  -10.19050 -10.18656 -10.18556 -10.18357 -10.18019
 Alpha  occ. eigenvalues --  -10.17949 -10.17636 -10.17365 -10.17341 -10.17254
 Alpha  occ. eigenvalues --  -10.17236 -10.17025 -10.16167 -10.15702 -10.15654
 Alpha  occ. eigenvalues --  -10.14775  -1.10016  -1.06538  -1.04735  -1.03650
 Alpha  occ. eigenvalues --   -1.03015  -0.87790  -0.84751  -0.82863  -0.82047
 Alpha  occ. eigenvalues --   -0.80732  -0.80276  -0.77712  -0.74762  -0.73880
 Alpha  occ. eigenvalues --   -0.73032  -0.72288  -0.70970  -0.69433  -0.68792
 Alpha  occ. eigenvalues --   -0.65633  -0.64940  -0.63950  -0.62661  -0.61566
 Alpha  occ. eigenvalues --   -0.60042  -0.59667  -0.57549  -0.55501  -0.54113
 Alpha  occ. eigenvalues --   -0.53819  -0.52822  -0.51519  -0.50786  -0.49895
 Alpha  occ. eigenvalues --   -0.49276  -0.48453  -0.47992  -0.47366  -0.46941
 Alpha  occ. eigenvalues --   -0.45801  -0.45234  -0.45056  -0.44184  -0.43913
 Alpha  occ. eigenvalues --   -0.43377  -0.43039  -0.42820  -0.42534  -0.41923
 Alpha  occ. eigenvalues --   -0.41732  -0.41580  -0.41183  -0.40909  -0.40690
 Alpha  occ. eigenvalues --   -0.40172  -0.39888  -0.39650  -0.39315  -0.38853
 Alpha  occ. eigenvalues --   -0.38454  -0.38378  -0.38159  -0.37312  -0.36849
 Alpha  occ. eigenvalues --   -0.36685  -0.36253  -0.36164  -0.35603  -0.35475
 Alpha  occ. eigenvalues --   -0.34545  -0.34199  -0.33931  -0.33424  -0.33191
 Alpha  occ. eigenvalues --   -0.32642  -0.32383  -0.31864  -0.28747  -0.28327
 Alpha  occ. eigenvalues --   -0.26375  -0.25833  -0.25343  -0.24553  -0.24028
 Alpha virt. eigenvalues --   -0.05504  -0.03162  -0.02051  -0.01455  -0.00697
 Alpha virt. eigenvalues --   -0.00489  -0.00391  -0.00143   0.00766   0.01003
 Alpha virt. eigenvalues --    0.01291   0.01524   0.01659   0.02358   0.02647

 Mulliken atomic charges:
              1
     1  C   -0.279895
     2  C    0.481831
     3  C   -0.090568
     4  C    0.151433
     5  C    0.944107
     6  C   -0.815102
     7  C   -0.469835
     8  C    0.162031
     9  C   -0.472184
    10  C    0.016401
    11  C    0.000981
    12  O   -0.356762
    13  C    0.292127
    14  C   -0.116939
    15  C   -0.601231
    16  O   -0.373242
    17  C    0.064325
    18  C    0.529894
    19  O   -0.288165
    20  C   -0.750226
    21  O   -0.326937
    22  C   -0.102336
    23  C    0.492033
    24  O   -0.444432
    25  C    0.285715
    26  C   -0.580830
    27  C   -0.641432
    28  C   -0.293699
    29  C   -0.372656
    30  H    0.145015
    31  H    0.172691
    32  C   -0.703482
    33  H    0.128386
    34  H    0.172758
    35  H    0.170398
    36  H    0.129557
    37  H    0.140499
    38  H    0.119590
    39  H    0.160275
    40  H    0.141177
    41  H    0.159803
    42  H    0.157843
    43  H    0.185574
    44  H    0.291839
    45  H    0.214093
    46  H    0.154753
    47  H    0.130114
    48  H    0.145105
    49  H    0.144092
    50  H    0.130450
    51  H    0.104501
    52  H    0.138145
    53  H    0.200424
    54  H    0.149295
    55  H    0.144511
    56  H    0.143188
    57  H    0.151916
    58  H    0.158839
    59  H    0.129221
    60  H    0.143141
    61  H    0.149816
    62  C   -0.551385
    63  H    0.136580
    64  H    0.160055
    65  H    0.106820
 Sum of Mulliken atomic charges =   0.00000

 Dipole moment (field-independent basis, Debye):
    X=              3.0725    Y=              4.8894    Z=              2.7023  Tot=              6.3757
 Quadrupole moment (field-independent basis, Debye-Ang):
   XX=           -182.9719   YY=           -183.7785   ZZ=           -191.6189
   XY=             -3.1245   XZ=             -9.7950   YZ=             -4.1743

  Exact polarizability: 321.717   6.589 320.342  -2.496   9.777 281.791
 Approx polarizability: 435.279  18.873 485.505  10.041  49.494 453.355

 Normal termination of Gaussian 09 at Mon Mar 29 23:11:51 2021.
