 Gaussian 09, Revision B.01,
 Gaussian 09:  EM64L-G09RevB.01 12-Aug-2010

 ------------------------------------------------------
 # rb3lyp/6-311++g(2d,p) geom=connectivity polar=optrot
 ------------------------------------------------------

 -------------------
 Title Card Required
 -------------------
 Symbolic Z-matrix:
 Charge =  0 Multiplicity = 1

                         Standard orientation:
 ---------------------------------------------------------------------
 Center     Atomic      Atomic             Coordinates (Angstroms)
 Number     Number       Type             X           Y           Z
 ---------------------------------------------------------------------
      1          6           0       -1.497060    0.403967    3.190699
      2          6           0       -1.387384    1.587541    2.584266
      3          6           0       -1.508324    1.718703    1.082863
      4          6           0       -1.498266    0.386100    0.270884
      5          6           0       -1.247526   -0.948417    1.026650
      6          6           0       -1.771926   -0.890604    2.482790
      7          6           0       -0.472991    0.640913   -0.870308
      8          6           0        0.940908    0.259642   -0.495728
      9          6           0        1.278591   -0.734302    0.349294
     10          6           0        0.218758   -1.459762    1.062375
     11          6           0        2.723094   -1.050756    0.684011
     12          8           0        3.133019   -0.875206    1.809230
     13          6           0        3.584626   -1.631107   -0.435574
     14          6           0        5.087572   -1.508278   -0.152245
     15          6           0        3.164254   -3.102327   -0.647782
     16          8           0        0.459880   -2.473784    1.695042
     17          6           0       -0.285341    2.165090   -1.014705
     18          6           0        1.124554    2.286348   -1.638150
     19          8           0        1.821489    1.093040   -1.071098
     20          6           0       -0.425992    2.633463    0.444729
     21          8           0       -0.802879   -0.046670   -2.064189
     22          6           0       -2.095682   -1.950018    0.200130
     23          6           0       -3.311783   -1.121677   -0.191100
     24          8           0       -2.791381    0.229627   -0.368125
     25          6           0       -4.101202   -1.504333   -1.424049
     26          6           0       -5.241234   -0.575424   -1.758417
     27          6           0       -3.845278   -2.604598   -2.133922
     28          6           0        1.121409    2.151371   -3.160019
     29          6           0        1.939075    3.500401   -1.207819
     30          1           0       -1.049782    2.606177   -1.658547
     31          1           0       -2.486404    2.166287    0.864052
     32          6           0       -1.201807    2.866031    3.360873
     33          1           0       -1.431315    0.358565    4.275739
     34          1           0       -2.855282   -1.070272    2.488025
     35          1           0       -1.334343   -1.730328    3.026163
     36          1           0        3.338985   -1.079009   -1.351495
     37          1           0        5.303036   -1.965222    0.818487
     38          1           0        5.622039   -2.105206   -0.900728
     39          1           0        3.710455   -3.526584   -1.494464
     40          1           0        2.096246   -3.198900   -0.854924
     41          1           0        3.386149   -3.702875    0.237976
     42          1           0        0.518559    2.495249    0.977095
     43          1           0       -0.683241    3.691173    0.523960
     44          1           0       -1.772719   -0.040910   -2.116431
     45          1           0       -1.544049   -2.268411   -0.685976
     46          1           0       -2.349849   -2.836090    0.783624
     47          1           0       -4.018693   -1.078409    0.649428
     48          1           0       -4.885436    0.445623   -1.921610
     49          1           0       -5.776556   -0.903193   -2.651394
     50          1           0       -5.958731   -0.526047   -0.931073
     51          1           0       -4.453076   -2.870880   -2.993351
     52          1           0       -3.039192   -3.287119   -1.890975
     53          1           0        2.146533    2.074110   -3.530295
     54          1           0        0.665927    3.037107   -3.612456
     55          1           0        0.563387    1.272886   -3.480033
     56          1           0        2.059879    3.556080   -0.126216
     57          1           0        2.934276    3.464957   -1.656235
     58          1           0        1.449803    4.417365   -1.548015
     59          1           0       -1.207731    2.678575    4.436352
     60          1           0       -0.258881    3.366753    3.117362
     61          1           0       -2.002775    3.582665    3.140681
     62          6           0        5.619742   -0.073117   -0.175646
     63          1           0        6.699478   -0.055463   -0.000815
     64          1           0        5.435650    0.406219   -1.142882
     65          1           0        5.151929    0.539989    0.597502
 ---------------------------------------------------------------------

 SCF Done:  E(RB3LYP) =  -1387.73168464     A.U. after   16 cycles

  1  C    Isotropic =    54.5246   Anisotropy =   125.2428

  2  C    Isotropic =    38.8700   Anisotropy =   169.2916

  3  C    Isotropic =   128.9558   Anisotropy =    33.4710

  4  C    Isotropic =    85.9783   Anisotropy =    47.4741

  5  C    Isotropic =   125.6582   Anisotropy =    31.6868

  6  C    Isotropic =   145.7553   Anisotropy =    30.0477

  7  C    Isotropic =    91.0745   Anisotropy =    39.6420

  8  C    Isotropic =     2.2868   Anisotropy =   123.8663

  9  C    Isotropic =    57.5373   Anisotropy =    97.3104

 10  C    Isotropic =   -20.2489   Anisotropy =   159.5510

 11  C    Isotropic =   -29.4317   Anisotropy =   173.0777

 12  O    Isotropic =  -330.0884   Anisotropy =  1028.4268

 13  C    Isotropic =   127.4835   Anisotropy =    38.1931

 14  C    Isotropic =   153.5148   Anisotropy =    27.7868

 15  C    Isotropic =   163.1635   Anisotropy =    28.8139

 16  O    Isotropic =  -256.1889   Anisotropy =   920.0296

 17  C    Isotropic =   124.4240   Anisotropy =    19.5627

 18  C    Isotropic =    83.6335   Anisotropy =    83.7387

 19  O    Isotropic =   108.9697   Anisotropy =    76.6468

 20  C    Isotropic =   149.2405   Anisotropy =    30.8962

 21  O    Isotropic =   241.7838   Anisotropy =    40.5700

 22  C    Isotropic =   138.9772   Anisotropy =    32.5533

 23  C    Isotropic =    97.8340   Anisotropy =    56.6082

 24  O    Isotropic =   190.1115   Anisotropy =   101.8691

 25  C    Isotropic =    27.5051   Anisotropy =   186.0469

 26  C    Isotropic =   158.9137   Anisotropy =    39.1799

 27  C    Isotropic =    66.6245   Anisotropy =   126.3436

 28  C    Isotropic =   155.7435   Anisotropy =    39.9882

 29  C    Isotropic =   158.1261   Anisotropy =    37.0171

 30  H    Isotropic =    29.7802   Anisotropy =     4.0377

 31  H    Isotropic =    29.0873   Anisotropy =     5.3667

 32  C    Isotropic =   160.0027   Anisotropy =    38.0830

 33  H    Isotropic =    26.2261   Anisotropy =     3.5242

 34  H    Isotropic =    29.8059   Anisotropy =     6.3807

 35  H    Isotropic =    28.6117   Anisotropy =     7.2307

 36  H    Isotropic =    29.1199   Anisotropy =     7.3113

 37  H    Isotropic =    29.9108   Anisotropy =     6.1492

 38  H    Isotropic =    30.8314   Anisotropy =     7.5792

 39  H    Isotropic =    30.9943   Anisotropy =     8.7622

 40  H    Isotropic =    30.5665   Anisotropy =     7.2287

 41  H    Isotropic =    31.0781   Anisotropy =     7.9147

 42  H    Isotropic =    30.8327   Anisotropy =     4.7165

 43  H    Isotropic =    29.9312   Anisotropy =     8.3955

 44  H    Isotropic =    28.7921   Anisotropy =    16.5738

 45  H    Isotropic =    29.5056   Anisotropy =     5.3574

 46  H    Isotropic =    30.0735   Anisotropy =     8.4885

 47  H    Isotropic =    27.2328   Anisotropy =     7.3242

 48  H    Isotropic =    29.6136   Anisotropy =     4.5464

 49  H    Isotropic =    30.0385   Anisotropy =     8.2580

 50  H    Isotropic =    30.1470   Anisotropy =     8.4085

 51  H    Isotropic =    26.7565   Anisotropy =     5.1745

 52  H    Isotropic =    26.7626   Anisotropy =     8.2639

 53  H    Isotropic =    30.5847   Anisotropy =     8.4492

 54  H    Isotropic =    30.9324   Anisotropy =     9.7153

 55  H    Isotropic =    29.1806   Anisotropy =     4.9522

 56  H    Isotropic =    30.5781   Anisotropy =     5.9275

 57  H    Isotropic =    30.4664   Anisotropy =     8.3576

 58  H    Isotropic =    30.8699   Anisotropy =     9.7117

 59  H    Isotropic =    30.2034   Anisotropy =     8.4961

 60  H    Isotropic =    30.1369   Anisotropy =     6.3427

 61  H    Isotropic =    30.3979   Anisotropy =     8.9201

 62  C    Isotropic =   169.0766   Anisotropy =    23.4015

 63  H    Isotropic =    30.9932   Anisotropy =    11.2312

 64  H    Isotropic =    31.3460   Anisotropy =     7.2141

 65  H    Isotropic =    30.8349   Anisotropy =     5.0165

 The electronic state is 1-A.
 Alpha  occ. eigenvalues --  -19.17694 -19.14569 -19.13939 -19.10933 -19.10424
 Alpha  occ. eigenvalues --  -10.26153 -10.26091 -10.25942 -10.25757 -10.25188
 Alpha  occ. eigenvalues --  -10.25055 -10.24066 -10.20452 -10.19706 -10.19700
 Alpha  occ. eigenvalues --  -10.19316 -10.18672 -10.18250 -10.18235 -10.18141
 Alpha  occ. eigenvalues --  -10.17857 -10.17551 -10.17502 -10.17452 -10.17433
 Alpha  occ. eigenvalues --  -10.17106 -10.17062 -10.16715 -10.15817 -10.15690
 Alpha  occ. eigenvalues --  -10.14702  -1.09946  -1.06576  -1.04629  -1.03632
 Alpha  occ. eigenvalues --   -1.03396  -0.87509  -0.84584  -0.83217  -0.82269
 Alpha  occ. eigenvalues --   -0.81010  -0.80387  -0.77607  -0.74959  -0.73960
 Alpha  occ. eigenvalues --   -0.72866  -0.72105  -0.70768  -0.70129  -0.68555
 Alpha  occ. eigenvalues --   -0.65680  -0.65030  -0.63870  -0.62616  -0.61365
 Alpha  occ. eigenvalues --   -0.60221  -0.59854  -0.57773  -0.55974  -0.54272
 Alpha  occ. eigenvalues --   -0.53707  -0.53129  -0.51350  -0.51126  -0.50093
 Alpha  occ. eigenvalues --   -0.49414  -0.48780  -0.47506  -0.47199  -0.46589
 Alpha  occ. eigenvalues --   -0.46130  -0.45368  -0.44685  -0.44222  -0.44131
 Alpha  occ. eigenvalues --   -0.43973  -0.42943  -0.42762  -0.42377  -0.42015
 Alpha  occ. eigenvalues --   -0.41919  -0.41317  -0.41249  -0.41016  -0.40811
 Alpha  occ. eigenvalues --   -0.40050  -0.39816  -0.39199  -0.38960  -0.38586
 Alpha  occ. eigenvalues --   -0.38396  -0.38248  -0.38207  -0.37809  -0.37699
 Alpha  occ. eigenvalues --   -0.37126  -0.36686  -0.36120  -0.35656  -0.35237
 Alpha  occ. eigenvalues --   -0.34671  -0.34367  -0.33770  -0.33443  -0.32906
 Alpha  occ. eigenvalues --   -0.32796  -0.32179  -0.31942  -0.29272  -0.27663
 Alpha  occ. eigenvalues --   -0.27364  -0.25930  -0.25235  -0.24314  -0.24156
 Alpha virt. eigenvalues --   -0.05638  -0.02764  -0.02053  -0.01904  -0.00811
 Alpha virt. eigenvalues --   -0.00685  -0.00009   0.00448   0.00813   0.00896
 Alpha virt. eigenvalues --    0.01210   0.01357   0.02094   0.02330   0.02386

 Mulliken atomic charges:
              1
     1  C   -0.090531
     2  C    0.309761
     3  C    0.019686
     4  C    0.331331
     5  C    0.609469
     6  C   -0.409466
     7  C   -0.699399
     8  C    0.106236
     9  C   -0.285005
    10  C    0.008651
    11  C    0.213281
    12  O   -0.346351
    13  C    0.239921
    14  C   -0.094253
    15  C   -0.599375
    16  O   -0.385346
    17  C   -0.037648
    18  C    0.501598
    19  O   -0.302975
    20  C   -0.476071
    21  O   -0.339191
    22  C   -0.507687
    23  C    0.155423
    24  O   -0.447683
    25  C    0.379557
    26  C   -0.526558
    27  C   -0.563474
    28  C   -0.379809
    29  C   -0.387274
    30  H    0.153434
    31  H    0.135268
    32  C   -0.657173
    33  H    0.128506
    34  H    0.129988
    35  H    0.220165
    36  H    0.136238
    37  H    0.142294
    38  H    0.115890
    39  H    0.136052
    40  H    0.143929
    41  H    0.166771
    42  H    0.160540
    43  H    0.187472
    44  H    0.292038
    45  H    0.228733
    46  H    0.169424
    47  H    0.111551
    48  H    0.165380
    49  H    0.130209
    50  H    0.143489
    51  H    0.120221
    52  H    0.138320
    53  H    0.143758
    54  H    0.146901
    55  H    0.196099
    56  H    0.144628
    57  H    0.155250
    58  H    0.152853
    59  H    0.133083
    60  H    0.145462
    61  H    0.144131
    62  C   -0.566485
    63  H    0.135526
    64  H    0.107115
    65  H    0.166117
 Sum of Mulliken atomic charges =   0.00000

 Dipole moment (field-independent basis, Debye):
    X=             -3.7650    Y=              3.8849    Z=             -3.2865  Tot=              6.3300
 Quadrupole moment (field-independent basis, Debye-Ang):
   XX=           -185.7420   YY=           -181.5062   ZZ=           -191.3786
   XY=              4.6791   XZ=             -8.9269   YZ=              4.4843

  Exact polarizability: 316.888   8.755 318.127   0.493  -5.919 291.866
 Approx polarizability: 421.925   2.864 496.793   3.033 -34.877 457.788

 Normal termination of Gaussian 09 at Mon Mar 29 17:44:48 2021.
