 Gaussian 09, Revision B.01,
 Gaussian 09:  EM64L-G09RevB.01 12-Aug-2010

 ------------------------------------------------------
 # rb3lyp/6-311++g(2d,p) geom=connectivity polar=optrot
 ------------------------------------------------------

 -------------------
 Title Card Required
 -------------------
 Symbolic Z-matrix:
 Charge =  0 Multiplicity = 1

                         Standard orientation:
 ---------------------------------------------------------------------
 Center     Atomic      Atomic             Coordinates (Angstroms)
 Number     Number       Type             X           Y           Z
 ---------------------------------------------------------------------
      1          6           0       -1.525779    0.039325    3.214675
      2          6           0       -1.623125    1.263725    2.691976
      3          6           0       -1.756772    1.474146    1.200225
      4          6           0       -1.492714    0.224447    0.303744
      5          6           0       -0.993856   -1.082522    0.977553
      6          6           0       -1.553866   -1.228965    2.411024
      7          6           0       -0.534039    0.743237   -0.800382
      8          6           0        0.929345    0.616167   -0.432882
      9          6           0        1.448491   -0.372260    0.333445
     10          6           0        0.544280   -1.292231    1.023767
     11          6           0        2.936027   -0.473860    0.584075
     12          8           0        3.553028    0.489129    0.989152
     13          6           0        3.645315   -1.795014    0.272556
     14          6           0        4.661857   -1.579063   -0.870694
     15          6           0        4.338808   -2.326653    1.536821
     16          8           0        0.977297   -2.225872    1.686395
     17          6           0       -0.637582    2.280704   -0.844818
     18          6           0        0.723040    2.702210   -1.448380
     19          8           0        1.629045    1.614684   -0.968518
     20          6           0       -0.862407    2.615898    0.640960
     21          8           0       -0.719138    0.085555   -2.041476
     22          6           0       -1.606249   -2.169304    0.055262
     23          6           0       -2.961056   -1.576344   -0.312869
     24          8           0       -2.731893   -0.136146   -0.358580
     25          6           0       -3.630356   -2.005113   -1.601210
     26          6           0       -4.935385   -1.309494   -1.896045
     27          6           0       -3.135009   -2.958673   -2.391782
     28          6           0        0.734415    2.684800   -2.975461
     29          6           0        1.310963    4.004036   -0.918210
     30          1           0       -1.473373    2.610753   -1.466146
     31          1           0       -2.800453    1.744909    0.994486
     32          6           0       -1.674798    2.497951    3.555552
     33          1           0       -1.464297   -0.070498    4.295399
     34          1           0       -2.588096   -1.594354    2.364880
     35          1           0       -0.984761   -2.015780    2.909401
     36          1           0        2.897902   -2.524812   -0.051129
     37          1           0        5.384237   -0.819875   -0.553653
     38          1           0        5.224900   -2.511610   -0.992521
     39          1           0        4.863049   -3.260808    1.314840
     40          1           0        3.612681   -2.525105    2.326793
     41          1           0        5.069440   -1.604309    1.908785
     42          1           0       -1.312610    3.599323    0.786856
     43          1           0        0.091764    2.620376    1.173956
     44          1           0       -1.672051   -0.085007   -2.116307
     45          1           0       -1.685220   -3.130062    0.566371
     46          1           0       -0.985408   -2.299477   -0.832599
     47          1           0       -3.677475   -1.753149    0.501402
     48          1           0       -5.661659   -1.487576   -1.094419
     49          1           0       -4.801343   -0.225998   -1.957367
     50          1           0       -5.373354   -1.658767   -2.832935
     51          1           0       -2.206479   -3.475368   -2.178986
     52          1           0       -3.657979   -3.267856   -3.291599
     53          1           0        0.339437    1.748052   -3.365054
     54          1           0        1.754579    2.819452   -3.342544
     55          1           0        0.126565    3.508092   -3.362065
     56          1           0        0.661692    4.842593   -1.185526
     57          1           0        2.292359    4.181949   -1.362766
     58          1           0        1.432542    3.991047    0.164352
     59          1           0       -1.652322    2.239120    4.615955
     60          1           0       -0.836303    3.174459    3.361172
     61          1           0       -2.590620    3.072606    3.369800
     62          6           0        4.042131   -1.181179   -2.213125
     63          1           0        3.537064   -0.212797   -2.159977
     64          1           0        3.308305   -1.919992   -2.551331
     65          1           0        4.810502   -1.104167   -2.987975
 ---------------------------------------------------------------------

 SCF Done:  E(RB3LYP) =  -1387.73281766     A.U. after   16 cycles

  1  C    Isotropic =    55.0815   Anisotropy =   124.4720

  2  C    Isotropic =    38.3748   Anisotropy =   170.1463

  3  C    Isotropic =   129.0234   Anisotropy =    33.4924

  4  C    Isotropic =    86.1438   Anisotropy =    48.0475

  5  C    Isotropic =   126.0802   Anisotropy =    30.6393

  6  C    Isotropic =   147.1353   Anisotropy =    29.1297

  7  C    Isotropic =    90.8438   Anisotropy =    39.6957

  8  C    Isotropic =     1.1559   Anisotropy =   125.0866

  9  C    Isotropic =    57.1467   Anisotropy =   104.8175

 10  C    Isotropic =   -19.6517   Anisotropy =   159.8627

 11  C    Isotropic =   -35.5508   Anisotropy =   183.3676

 12  O    Isotropic =  -326.1912   Anisotropy =  1036.6940

 13  C    Isotropic =   128.4954   Anisotropy =    18.1515

 14  C    Isotropic =   147.2748   Anisotropy =    31.8663

 15  C    Isotropic =   162.6613   Anisotropy =    33.5856

 16  O    Isotropic =  -233.1621   Anisotropy =   895.2938

 17  C    Isotropic =   124.4704   Anisotropy =    20.1708

 18  C    Isotropic =    82.7294   Anisotropy =    84.7826

 19  O    Isotropic =    94.8392   Anisotropy =   111.6536

 20  C    Isotropic =   149.1667   Anisotropy =    30.8350

 21  O    Isotropic =   242.2749   Anisotropy =    39.8184

 22  C    Isotropic =   139.2826   Anisotropy =    32.9461

 23  C    Isotropic =    97.6540   Anisotropy =    56.6432

 24  O    Isotropic =   191.6458   Anisotropy =   103.4709

 25  C    Isotropic =    27.5107   Anisotropy =   184.9172

 26  C    Isotropic =   158.9358   Anisotropy =    39.1198

 27  C    Isotropic =    66.7918   Anisotropy =   125.8109

 28  C    Isotropic =   155.9366   Anisotropy =    39.9595

 29  C    Isotropic =   158.3367   Anisotropy =    36.7702

 30  H    Isotropic =    29.7820   Anisotropy =     3.9654

 31  H    Isotropic =    29.0865   Anisotropy =     5.4347

 32  C    Isotropic =   159.8363   Anisotropy =    38.4464

 33  H    Isotropic =    26.1799   Anisotropy =     3.6849

 34  H    Isotropic =    29.8393   Anisotropy =     6.4461

 35  H    Isotropic =    28.5058   Anisotropy =     7.4314

 36  H    Isotropic =    28.9595   Anisotropy =     5.8319

 37  H    Isotropic =    30.1014   Anisotropy =     5.4527

 38  H    Isotropic =    30.5740   Anisotropy =     7.6710

 39  H    Isotropic =    31.2141   Anisotropy =     9.3409

 40  H    Isotropic =    30.2146   Anisotropy =     7.9820

 41  H    Isotropic =    30.7636   Anisotropy =     7.2253

 42  H    Isotropic =    29.9493   Anisotropy =     8.5247

 43  H    Isotropic =    30.7330   Anisotropy =     5.1463

 44  H    Isotropic =    28.9966   Anisotropy =    16.5902

 45  H    Isotropic =    30.1024   Anisotropy =     8.4991

 46  H    Isotropic =    29.3959   Anisotropy =     5.1983

 47  H    Isotropic =    27.2027   Anisotropy =     7.3159

 48  H    Isotropic =    30.1058   Anisotropy =     8.5113

 49  H    Isotropic =    29.5765   Anisotropy =     4.6501

 50  H    Isotropic =    29.9916   Anisotropy =     8.2943

 51  H    Isotropic =    26.7697   Anisotropy =     8.2858

 52  H    Isotropic =    26.7289   Anisotropy =     5.0652

 53  H    Isotropic =    29.2908   Anisotropy =     4.9275

 54  H    Isotropic =    30.5917   Anisotropy =     8.4277

 55  H    Isotropic =    30.9338   Anisotropy =     9.7037

 56  H    Isotropic =    30.8932   Anisotropy =     9.6431

 57  H    Isotropic =    30.3931   Anisotropy =     8.7432

 58  H    Isotropic =    30.4392   Anisotropy =     6.2712

 59  H    Isotropic =    30.2625   Anisotropy =     8.5095

 60  H    Isotropic =    30.1097   Anisotropy =     6.4411

 61  H    Isotropic =    30.4104   Anisotropy =     8.9131

 62  C    Isotropic =   168.7286   Anisotropy =    22.6483

 63  H    Isotropic =    31.0259   Anisotropy =     9.0149

 64  H    Isotropic =    31.1510   Anisotropy =     5.8280

 65  H    Isotropic =    31.0259   Anisotropy =    10.7081

 The electronic state is 1-A.
 Alpha  occ. eigenvalues --  -19.17636 -19.14617 -19.13959 -19.10646 -19.10558
 Alpha  occ. eigenvalues --  -10.26485 -10.26271 -10.25776 -10.25527 -10.25170
 Alpha  occ. eigenvalues --  -10.25083 -10.24183 -10.20557 -10.19783 -10.19654
 Alpha  occ. eigenvalues --  -10.19384 -10.18646 -10.18451 -10.18282 -10.18278
 Alpha  occ. eigenvalues --  -10.17581 -10.17566 -10.17521 -10.17515 -10.17142
 Alpha  occ. eigenvalues --  -10.16925 -10.16838 -10.16772 -10.15940 -10.14962
 Alpha  occ. eigenvalues --  -10.14488  -1.10135  -1.06625  -1.04355  -1.03711
 Alpha  occ. eigenvalues --   -1.03430  -0.87578  -0.84488  -0.83243  -0.82286
 Alpha  occ. eigenvalues --   -0.81079  -0.79962  -0.77568  -0.75035  -0.73963
 Alpha  occ. eigenvalues --   -0.72518  -0.72079  -0.70613  -0.70206  -0.68604
 Alpha  occ. eigenvalues --   -0.66008  -0.64573  -0.64024  -0.62303  -0.61414
 Alpha  occ. eigenvalues --   -0.60369  -0.59667  -0.57860  -0.55598  -0.54443
 Alpha  occ. eigenvalues --   -0.53541  -0.53134  -0.51548  -0.51143  -0.50130
 Alpha  occ. eigenvalues --   -0.49277  -0.48769  -0.47549  -0.46990  -0.46664
 Alpha  occ. eigenvalues --   -0.46144  -0.45344  -0.44716  -0.44309  -0.44103
 Alpha  occ. eigenvalues --   -0.43469  -0.42941  -0.42695  -0.42339  -0.42066
 Alpha  occ. eigenvalues --   -0.41793  -0.41264  -0.41159  -0.40928  -0.40620
 Alpha  occ. eigenvalues --   -0.39985  -0.39851  -0.39180  -0.38935  -0.38817
 Alpha  occ. eigenvalues --   -0.38384  -0.38284  -0.38116  -0.37745  -0.37529
 Alpha  occ. eigenvalues --   -0.37205  -0.35987  -0.35932  -0.35430  -0.35149
 Alpha  occ. eigenvalues --   -0.34601  -0.34422  -0.33821  -0.33477  -0.32966
 Alpha  occ. eigenvalues --   -0.32442  -0.32109  -0.31519  -0.29305  -0.27710
 Alpha  occ. eigenvalues --   -0.27398  -0.26014  -0.25172  -0.24468  -0.24035
 Alpha virt. eigenvalues --   -0.05902  -0.02671  -0.02133  -0.01814  -0.00824
 Alpha virt. eigenvalues --   -0.00495  -0.00062   0.00376   0.00799   0.01179
 Alpha virt. eigenvalues --    0.01216   0.01363   0.01750   0.02492   0.02762

 Mulliken atomic charges:
              1
     1  C   -0.072368
     2  C    0.316365
     3  C    0.040065
     4  C    0.342620
     5  C    0.394224
     6  C   -0.357241
     7  C   -0.715767
     8  C    0.190439
     9  C   -0.057780
    10  C   -0.194137
    11  C    0.222461
    12  O   -0.360172
    13  C    0.335502
    14  C   -0.193516
    15  C   -0.566646
    16  O   -0.415623
    17  C   -0.025425
    18  C    0.515867
    19  O   -0.283562
    20  C   -0.535922
    21  O   -0.330293
    22  C   -0.439283
    23  C    0.218318
    24  O   -0.450711
    25  C    0.273766
    26  C   -0.534374
    27  C   -0.543553
    28  C   -0.392143
    29  C   -0.413216
    30  H    0.155277
    31  H    0.137451
    32  C   -0.647705
    33  H    0.128522
    34  H    0.124677
    35  H    0.223807
    36  H    0.138426
    37  H    0.148487
    38  H    0.110658
    39  H    0.128667
    40  H    0.172873
    41  H    0.155092
    42  H    0.187755
    43  H    0.183997
    44  H    0.289363
    45  H    0.168865
    46  H    0.213936
    47  H    0.117692
    48  H    0.142994
    49  H    0.165633
    50  H    0.129395
    51  H    0.131908
    52  H    0.122422
    53  H    0.193222
    54  H    0.142644
    55  H    0.150694
    56  H    0.149576
    57  H    0.157373
    58  H    0.146064
    59  H    0.133288
    60  H    0.146759
    61  H    0.143766
    62  C   -0.582335
    63  H    0.162737
    64  H    0.120465
    65  H    0.137660
 Sum of Mulliken atomic charges =   0.00000

 Dipole moment (field-independent basis, Debye):
    X=             -5.0129    Y=              2.0927    Z=             -2.0247  Tot=              5.7973
 Quadrupole moment (field-independent basis, Debye-Ang):
   XX=           -192.0966   YY=           -178.0361   ZZ=           -187.8872
   XY=             -0.9016   XZ=             -5.5868   YZ=              1.4069

  Exact polarizability: 309.896  -2.901 322.606   2.819  -8.825 297.877
 Approx polarizability: 428.980  -7.700 509.925   7.227 -32.704 442.527

 Normal termination of Gaussian 09 at Mon Mar 29 20:44:59 2021.
